<?xml version="1.0" encoding="UTF-8"?>

<!-- generated on 05/21/19 14:04:53 by Eclipse SUMO GUI Version 1.2.0
<configuration xmlns:xsi="http://www.w3.org/2001/XMLSchema-instance" xsi:noNamespaceSchemaLocation="http://sumo.dlr.de/xsd/sumoConfiguration.xsd">

    <input>
        <net-file value="data/cross.net.xml"/>
        <route-files value="data/cross.rou.xml"/>
        <additional-files value="data/cross.det.xml"/>
    </input>

    <output>
        <fcd-output value="sumofcdoutput.xml"/>
    </output>

    <time>
        <begin value="0"/>
        <step-length value="0.025"/>
    </time>

    <report>
        <verbose value="true"/>
        <no-step-log value="true"/>
    </report>

    <fcd_device>
        <device.fcd.period value="0.01"/>
    </fcd_device>

    <traci_server>
        <remote-port value="52761"/>
    </traci_server>

    <gui_only>
        <tracker-interval value="0.025"/>
    </gui_only>

</configuration>
-->

<detector xmlns:xsi="http://www.w3.org/2001/XMLSchema-instance" xsi:noNamespaceSchemaLocation="http://sumo.dlr.de/xsd/det_e1_file.xsd">
    <interval begin="0.00" end="30.00" id="0" nVehContrib="0" flow="0.00" occupancy="0.00" speed="-1.00" harmonicMeanSpeed="-1.00" length="-1.00" nVehEntered="0"/>
    <interval begin="30.00" end="60.00" id="0" nVehContrib="3" flow="360.00" occupancy="2.13" speed="23.48" harmonicMeanSpeed="23.48" length="5.00" nVehEntered="3"/>
    <interval begin="60.00" end="90.00" id="0" nVehContrib="3" flow="360.00" occupancy="2.14" speed="23.40" harmonicMeanSpeed="23.40" length="5.00" nVehEntered="3"/>
    <interval begin="90.00" end="120.00" id="0" nVehContrib="4" flow="480.00" occupancy="2.84" speed="23.46" harmonicMeanSpeed="23.46" length="5.00" nVehEntered="4"/>
    <interval begin="120.00" end="150.00" id="0" nVehContrib="3" flow="360.00" occupancy="2.14" speed="23.39" harmonicMeanSpeed="23.39" length="5.00" nVehEntered="3"/>
    <interval begin="150.00" end="180.00" id="0" nVehContrib="2" flow="240.00" occupancy="1.42" speed="23.41" harmonicMeanSpeed="23.41" length="5.00" nVehEntered="2"/>
    <interval begin="180.00" end="210.00" id="0" nVehContrib="0" flow="0.00" occupancy="0.00" speed="-1.00" harmonicMeanSpeed="-1.00" length="-1.00" nVehEntered="0"/>
    <interval begin="210.00" end="240.00" id="0" nVehContrib="1" flow="120.00" occupancy="0.71" speed="23.44" harmonicMeanSpeed="23.44" length="5.00" nVehEntered="1"/>
    <interval begin="240.00" end="270.00" id="0" nVehContrib="3" flow="360.00" occupancy="2.13" speed="23.44" harmonicMeanSpeed="23.44" length="5.00" nVehEntered="3"/>
    <interval begin="270.00" end="300.00" id="0" nVehContrib="3" flow="360.00" occupancy="2.13" speed="23.46" harmonicMeanSpeed="23.46" length="5.00" nVehEntered="3"/>
    <interval begin="300.00" end="330.00" id="0" nVehContrib="1" flow="120.00" occupancy="0.71" speed="23.39" harmonicMeanSpeed="23.39" length="5.00" nVehEntered="1"/>
    <interval begin="330.00" end="360.00" id="0" nVehContrib="3" flow="360.00" occupancy="2.12" speed="23.55" harmonicMeanSpeed="23.55" length="5.00" nVehEntered="3"/>
    <interval begin="360.00" end="390.00" id="0" nVehContrib="6" flow="720.00" occupancy="4.27" speed="23.42" harmonicMeanSpeed="23.42" length="5.00" nVehEntered="6"/>
    <interval begin="390.00" end="420.00" id="0" nVehContrib="6" flow="720.00" occupancy="4.27" speed="23.44" harmonicMeanSpeed="23.44" length="5.00" nVehEntered="6"/>
    <interval begin="420.00" end="450.00" id="0" nVehContrib="6" flow="720.00" occupancy="4.27" speed="23.43" harmonicMeanSpeed="23.43" length="5.00" nVehEntered="6"/>
    <interval begin="450.00" end="480.00" id="0" nVehContrib="4" flow="480.00" occupancy="2.85" speed="23.42" harmonicMeanSpeed="23.42" length="5.00" nVehEntered="4"/>
    <interval begin="480.00" end="510.00" id="0" nVehContrib="4" flow="480.00" occupancy="2.85" speed="23.40" harmonicMeanSpeed="23.40" length="5.00" nVehEntered="4"/>
    <interval begin="510.00" end="540.00" id="0" nVehContrib="1" flow="120.00" occupancy="0.71" speed="23.62" harmonicMeanSpeed="23.62" length="5.00" nVehEntered="1"/>
    <interval begin="540.00" end="570.00" id="0" nVehContrib="4" flow="480.00" occupancy="2.84" speed="23.45" harmonicMeanSpeed="23.45" length="5.00" nVehEntered="4"/>
    <interval begin="570.00" end="600.00" id="0" nVehContrib="2" flow="240.00" occupancy="1.42" speed="23.49" harmonicMeanSpeed="23.49" length="5.00" nVehEntered="2"/>
    <interval begin="600.00" end="630.00" id="0" nVehContrib="1" flow="120.00" occupancy="0.71" speed="23.34" harmonicMeanSpeed="23.34" length="5.00" nVehEntered="1"/>
    <interval begin="630.00" end="660.00" id="0" nVehContrib="2" flow="240.00" occupancy="1.43" speed="23.33" harmonicMeanSpeed="23.33" length="5.00" nVehEntered="2"/>
    <interval begin="660.00" end="690.00" id="0" nVehContrib="4" flow="480.00" occupancy="2.85" speed="23.43" harmonicMeanSpeed="23.43" length="5.00" nVehEntered="4"/>
    <interval begin="690.00" end="720.00" id="0" nVehContrib="1" flow="120.00" occupancy="0.71" speed="23.40" harmonicMeanSpeed="23.40" length="5.00" nVehEntered="1"/>
    <interval begin="720.00" end="750.00" id="0" nVehContrib="2" flow="240.00" occupancy="1.85" speed="23.40" harmonicMeanSpeed="23.40" length="5.00" nVehEntered="3"/>
    <interval begin="750.00" end="780.00" id="0" nVehContrib="7" flow="840.00" occupancy="4.56" speed="23.43" harmonicMeanSpeed="23.43" length="5.00" nVehEntered="6"/>
    <interval begin="780.00" end="810.00" id="0" nVehContrib="2" flow="240.00" occupancy="1.42" speed="23.52" harmonicMeanSpeed="23.52" length="5.00" nVehEntered="2"/>
    <interval begin="810.00" end="840.00" id="0" nVehContrib="5" flow="600.00" occupancy="3.56" speed="23.42" harmonicMeanSpeed="23.42" length="5.00" nVehEntered="5"/>
    <interval begin="840.00" end="870.00" id="0" nVehContrib="3" flow="360.00" occupancy="2.13" speed="23.44" harmonicMeanSpeed="23.44" length="5.00" nVehEntered="3"/>
    <interval begin="870.00" end="900.00" id="0" nVehContrib="3" flow="360.00" occupancy="2.13" speed="23.44" harmonicMeanSpeed="23.44" length="5.00" nVehEntered="3"/>
    <interval begin="900.00" end="930.00" id="0" nVehContrib="3" flow="360.00" occupancy="2.13" speed="23.44" harmonicMeanSpeed="23.44" length="5.00" nVehEntered="3"/>
    <interval begin="930.00" end="960.00" id="0" nVehContrib="6" flow="720.00" occupancy="4.27" speed="23.44" harmonicMeanSpeed="23.44" length="5.00" nVehEntered="6"/>
    <interval begin="960.00" end="990.00" id="0" nVehContrib="6" flow="720.00" occupancy="4.27" speed="23.43" harmonicMeanSpeed="23.43" length="5.00" nVehEntered="6"/>
    <interval begin="990.00" end="1020.00" id="0" nVehContrib="4" flow="480.00" occupancy="2.85" speed="23.42" harmonicMeanSpeed="23.42" length="5.00" nVehEntered="4"/>
    <interval begin="1020.00" end="1050.00" id="0" nVehContrib="2" flow="240.00" occupancy="1.42" speed="23.42" harmonicMeanSpeed="23.42" length="5.00" nVehEntered="2"/>
    <interval begin="1050.00" end="1058.25" id="0" nVehContrib="0" flow="0.00" occupancy="0.00" speed="-1.00" harmonicMeanSpeed="-1.00" length="-1.00" nVehEntered="0"/>
</detector>
