<?xml version="1.0" encoding="UTF-8"?>

<!-- generated on 05/21/19 14:20:18 by Eclipse SUMO GUI Version 1.2.0
<configuration xmlns:xsi="http://www.w3.org/2001/XMLSchema-instance" xsi:noNamespaceSchemaLocation="http://sumo.dlr.de/xsd/sumoConfiguration.xsd">

    <input>
        <net-file value="data/cross.net.xml"/>
        <route-files value="data/cross.rou.xml"/>
        <additional-files value="data/cross.det.xml"/>
    </input>

    <output>
        <fcd-output value="sumofcdoutput.xml"/>
    </output>

    <time>
        <begin value="0"/>
        <step-length value="0.025"/>
    </time>

    <report>
        <verbose value="true"/>
        <no-step-log value="true"/>
    </report>

    <fcd_device>
        <device.fcd.period value="0.01"/>
    </fcd_device>

    <traci_server>
        <remote-port value="53731"/>
    </traci_server>

    <gui_only>
        <tracker-interval value="0.025"/>
    </gui_only>

</configuration>
-->

<detector xmlns:xsi="http://www.w3.org/2001/XMLSchema-instance" xsi:noNamespaceSchemaLocation="http://sumo.dlr.de/xsd/det_e1_file.xsd">
    <interval begin="0.00" end="30.00" id="0" nVehContrib="0" flow="0.00" occupancy="0.00" speed="-1.00" harmonicMeanSpeed="-1.00" length="-1.00" nVehEntered="0"/>
    <interval begin="30.00" end="60.00" id="0" nVehContrib="4" flow="480.00" occupancy="1.92" speed="34.70" harmonicMeanSpeed="34.68" length="5.00" nVehEntered="4"/>
    <interval begin="60.00" end="90.00" id="0" nVehContrib="3" flow="360.00" occupancy="1.42" speed="35.17" harmonicMeanSpeed="35.17" length="5.00" nVehEntered="3"/>
    <interval begin="90.00" end="120.00" id="0" nVehContrib="4" flow="480.00" occupancy="1.93" speed="34.57" harmonicMeanSpeed="34.55" length="5.00" nVehEntered="4"/>
    <interval begin="120.00" end="150.00" id="0" nVehContrib="3" flow="360.00" occupancy="1.43" speed="35.09" harmonicMeanSpeed="35.09" length="5.00" nVehEntered="3"/>
    <interval begin="150.00" end="180.00" id="0" nVehContrib="1" flow="120.00" occupancy="0.47" speed="35.15" harmonicMeanSpeed="35.15" length="5.00" nVehEntered="1"/>
    <interval begin="180.00" end="210.00" id="0" nVehContrib="1" flow="120.00" occupancy="0.47" speed="35.28" harmonicMeanSpeed="35.28" length="5.00" nVehEntered="1"/>
    <interval begin="210.00" end="240.00" id="0" nVehContrib="1" flow="120.00" occupancy="0.47" speed="35.29" harmonicMeanSpeed="35.29" length="5.00" nVehEntered="1"/>
    <interval begin="240.00" end="270.00" id="0" nVehContrib="4" flow="480.00" occupancy="1.90" speed="35.13" harmonicMeanSpeed="35.13" length="5.00" nVehEntered="4"/>
    <interval begin="270.00" end="300.00" id="0" nVehContrib="1" flow="120.00" occupancy="0.48" speed="34.99" harmonicMeanSpeed="34.99" length="5.00" nVehEntered="1"/>
    <interval begin="300.00" end="330.00" id="0" nVehContrib="2" flow="240.00" occupancy="0.95" speed="35.13" harmonicMeanSpeed="35.13" length="5.00" nVehEntered="2"/>
    <interval begin="330.00" end="360.00" id="0" nVehContrib="5" flow="600.00" occupancy="2.37" speed="35.18" harmonicMeanSpeed="35.18" length="5.00" nVehEntered="5"/>
    <interval begin="360.00" end="390.00" id="0" nVehContrib="7" flow="840.00" occupancy="3.32" speed="35.18" harmonicMeanSpeed="35.18" length="5.00" nVehEntered="7"/>
    <interval begin="390.00" end="420.00" id="0" nVehContrib="7" flow="840.00" occupancy="3.32" speed="35.15" harmonicMeanSpeed="35.14" length="5.00" nVehEntered="7"/>
    <interval begin="420.00" end="450.00" id="0" nVehContrib="3" flow="360.00" occupancy="1.43" speed="35.05" harmonicMeanSpeed="35.05" length="5.00" nVehEntered="3"/>
    <interval begin="450.00" end="480.00" id="0" nVehContrib="3" flow="360.00" occupancy="1.42" speed="35.20" harmonicMeanSpeed="35.20" length="5.00" nVehEntered="3"/>
    <interval begin="480.00" end="510.00" id="0" nVehContrib="3" flow="360.00" occupancy="1.45" speed="34.43" harmonicMeanSpeed="34.40" length="5.00" nVehEntered="3"/>
    <interval begin="510.00" end="540.00" id="0" nVehContrib="3" flow="360.00" occupancy="1.52" speed="33.18" harmonicMeanSpeed="32.94" length="5.00" nVehEntered="3"/>
    <interval begin="540.00" end="570.00" id="0" nVehContrib="3" flow="360.00" occupancy="1.43" speed="35.06" harmonicMeanSpeed="35.06" length="5.00" nVehEntered="3"/>
    <interval begin="570.00" end="600.00" id="0" nVehContrib="2" flow="240.00" occupancy="0.95" speed="35.14" harmonicMeanSpeed="35.14" length="5.00" nVehEntered="2"/>
    <interval begin="600.00" end="630.00" id="0" nVehContrib="1" flow="120.00" occupancy="0.48" speed="34.95" harmonicMeanSpeed="34.95" length="5.00" nVehEntered="1"/>
    <interval begin="630.00" end="660.00" id="0" nVehContrib="3" flow="360.00" occupancy="1.43" speed="35.04" harmonicMeanSpeed="35.04" length="5.00" nVehEntered="3"/>
    <interval begin="660.00" end="690.00" id="0" nVehContrib="3" flow="360.00" occupancy="1.42" speed="35.21" harmonicMeanSpeed="35.21" length="5.00" nVehEntered="3"/>
    <interval begin="690.00" end="720.00" id="0" nVehContrib="0" flow="0.00" occupancy="0.00" speed="-1.00" harmonicMeanSpeed="-1.00" length="-1.00" nVehEntered="0"/>
    <interval begin="720.00" end="750.00" id="0" nVehContrib="7" flow="840.00" occupancy="3.35" speed="34.85" harmonicMeanSpeed="34.84" length="5.00" nVehEntered="7"/>
    <interval begin="750.00" end="780.00" id="0" nVehContrib="4" flow="480.00" occupancy="1.93" speed="34.52" harmonicMeanSpeed="34.50" length="5.00" nVehEntered="4"/>
    <interval begin="780.00" end="810.00" id="0" nVehContrib="3" flow="360.00" occupancy="1.45" speed="34.58" harmonicMeanSpeed="34.55" length="5.00" nVehEntered="3"/>
    <interval begin="810.00" end="840.00" id="0" nVehContrib="3" flow="360.00" occupancy="1.42" speed="35.20" harmonicMeanSpeed="35.20" length="5.00" nVehEntered="3"/>
    <interval begin="840.00" end="870.00" id="0" nVehContrib="3" flow="360.00" occupancy="1.45" speed="34.58" harmonicMeanSpeed="34.56" length="5.00" nVehEntered="3"/>
    <interval begin="870.00" end="900.00" id="0" nVehContrib="3" flow="360.00" occupancy="1.42" speed="35.11" harmonicMeanSpeed="35.11" length="5.00" nVehEntered="3"/>
    <interval begin="900.00" end="930.00" id="0" nVehContrib="5" flow="600.00" occupancy="2.37" speed="35.16" harmonicMeanSpeed="35.16" length="5.00" nVehEntered="5"/>
    <interval begin="930.00" end="960.00" id="0" nVehContrib="6" flow="720.00" occupancy="2.87" speed="34.86" harmonicMeanSpeed="34.85" length="5.00" nVehEntered="6"/>
    <interval begin="960.00" end="990.00" id="0" nVehContrib="5" flow="600.00" occupancy="2.46" speed="33.96" harmonicMeanSpeed="33.84" length="5.00" nVehEntered="5"/>
    <interval begin="990.00" end="1020.00" id="0" nVehContrib="2" flow="240.00" occupancy="0.97" speed="34.53" harmonicMeanSpeed="34.53" length="5.00" nVehEntered="2"/>
    <interval begin="1020.00" end="1038.75" id="0" nVehContrib="2" flow="384.00" occupancy="1.51" speed="35.24" harmonicMeanSpeed="35.24" length="5.00" nVehEntered="2"/>
</detector>
